------------------------------------------------------------
          Invoking FHI-aims ...

          When using FHI-aims, please cite the following reference:

            Volker Blum, Ralf Gehrke, Felix Hanke, Paula Havu,
            Ville Havu, Xinguo Ren, Karsten Reuter, and Matthias Scheffler,
            'Ab Initio Molecular Simulations with Numeric Atom-Centered Orbitals',
            Computer Physics Communications 180, 2175-2196 (2009)

          In addition, many other developments in FHI-aims are likely important for
          your particular application. If so, please cite them. A partial list of references
          is written at the end of this file. Thank you for giving credit to the authors
          of these developments.

          For general information about FHI-aims please find us at

            https://fhi-aims.org

          Online tutorials can be found at

            https://fhi-aims-club.gitlab.io/tutorials/tutorials-overview/

          For any questions about FHI-aims, please visit our slack channel at

            https://fhi-aims.slack.com

          and our main development and support site at

            https://aims-git.rz-berlin.mpg.de .

          The latter site, in particular, has a wiki to collect information, as well
          as an issue tracker to log discussions, suggest improvements, and report issues
          or bugs. https://aims-git.rz-berlin.mpg.de is also the main development site
          of the project and all new and updated code versions can be obtained there.
          Please send an email to aims-coordinators@fhi-berlin.mpg.de and we will add
          you to these sites. They are for you and everyone is welcome there.

------------------------------------------------------------



  Date     :  20260311, Time     :  105447.466
  Time zero on CPU 1             :   0.462057000000000E+00  s.
  Internal wall clock time zero  :           542458487.466  s.

  FHI-aims created a unique identifier for this run for later identification
  aims_uuid : E3C3016B-B862-4440-AD80-E5817AB18346

  Build configuration of the current instance of FHI-aims
  -------------------------------------------------------
  FHI-aims version      : 241109
  Commit number         : e6755ac03
  CMake host system     : Linux-6.8.0-51-generic
  CMake version         : 3.28.3
  Fortran compiler      : /opt/intel/oneapi/2025.0/bin/mpiifort (IntelLLVM) version 2025.0.4
  Fortran compiler flags: -O3 -ip -fp-model precise
  C compiler            : /opt/intel/oneapi/2025.0/bin/icx (IntelLLVM) version 2025.0.4
  C compiler flags      : -O3 -ip -fp-model precise -std=gnu99
  C++ compiler          : /opt/intel/oneapi/2025.0/bin/icpx (IntelLLVM) version 2025.0.4
  C++ compiler flags    : -O3 -ip -fp-model precise
  CUDA compiler         : /usr/local/cuda-12.8/bin/nvcc
  CUDA compiler flags   : -O3 -DAdd_ -arch=sm_86
  HIP compiler          :
  HIP compiler flags    :
  HIP GPU arch          :
  Using MPI
  Using ScaLAPACK
  Using LibXC
  Using CUDA
  Using i-PI
  Using RLSY
  Linking against: /usr/local/cuda-12.8/targets/x86_64-linux/lib/libcublas.so
                   /usr/local/cuda-12.8/targets/x86_64-linux/lib/libcudart.so
                   /opt/intel/oneapi/2025.0/lib/libmkl_intel_lp64.so
                   /opt/intel/oneapi/2025.0/lib/libmkl_sequential.so
                   /opt/intel/oneapi/2025.0/lib/libmkl_core.so
                   /opt/intel/oneapi/2025.0/lib/libmkl_blacs_intelmpi_lp64.so
                   /opt/intel/oneapi/2025.0/lib/libmkl_scalapack_lp64.so

  Using       10 parallel tasks.
  Task        0 on host epyc-cest1 reporting.
  Task        1 on host epyc-cest1 reporting.
  Task        2 on host epyc-cest1 reporting.
  Task        3 on host epyc-cest1 reporting.
  Task        4 on host epyc-cest1 reporting.
  Task        5 on host epyc-cest1 reporting.
  Task        6 on host epyc-cest1 reporting.
  Task        7 on host epyc-cest1 reporting.
  Task        8 on host epyc-cest1 reporting.
  Task        9 on host epyc-cest1 reporting.

  Obtaining array dimensions for all initial allocations:
  
  -----------------------------------------------------------------------
  Parsing control.in (first pass over file, find array dimensions only).
  The contents of control.in will be repeated verbatim below
  unless switched off by setting 'verbatim_writeout .false.' .
  in the first line of control.in .
  -----------------------------------------------------------------------
  
  #===============================================================================
  # Created using the Atomic Simulation Environment (ASE)
  
  # Fri Jan 30 15:40:08 2026
  
  #===============================================================================
  xc                                 pbe
  relativistic                       atomic_zora scalar
  occupation_type                    gaussian 0.0010
  #density_update_method              density_matrix
  restart_read_only restart_file
  sc_iter_limit 0
  #===============================================================================
  
  ################################################################################
  #
  #  FHI-aims code project
  #  VB, Fritz-Haber Institut, 2009
  #
  #  Suggested "light" defaults for Co atom (to be pasted into control.in file)
  #  Be sure to double-check any results obtained with these settings for post-processing,
  #  e.g., with the "tight" defaults and larger basis sets.
  #
  #  2020/09/15 Added 4 p ionic function from tier 2 to default to improve description of
  #             bulk Co in "light".
  #
  ################################################################################
    species        Co
  #     global species definitions
      nucleus      27
      mass         58.933195
  #
      l_hartree    4
  #
      cut_pot      3.5  1.5  1.0
      basis_dep_cutoff    1e-4
  #
      radial_base        52 5.0
      radial_multiplier  1
      angular_grids       specified
        division   0.4668   50
        division   0.8401  110
        division   1.1973  194
        division   1.4237  302
  #      division   1.5981  434
  #      division   1.7961  590
  #      division   1.9829  770
  #      division   2.0231  974
  #      division   2.4367 1202
  #      outer_grid   974
        outer_grid   302
  ################################################################################
  #
  #  Definition of "minimal" basis
  #
  ################################################################################
  #     valence basis states
      valence      4  s   2.
      valence      3  p   6.
      valence      3  d   7.
  #     ion occupancy
      ion_occ      4  s   1.
      ion_occ      3  p   6.
      ion_occ      3  d   6.
  ################################################################################
  #
  #  Suggested additional basis functions. For production calculations,
  #  uncomment them one after another (the most important basis functions are
  #  listed first).
  #
  #  Constructed for dimers: 1.8, 2.0, 2.5, 3.5 Ang
  #
  ################################################################################
  #  "First tier" (improvements: -167.79 meV ...  -15.31 meV)
       hydro 3 p 5.8
       hydro 4 f 8.2
       hydro 3 d 5.4
  #     hydro 5 g 12
       ionic 4 s auto
  #  "Second tier" (improvements: -8.83 meV ... -0.89 meV)
       ionic 4 p auto
  #     hydro 6 h 16.4
  #     hydro 4 d 5.6
  #     hydro 4 f 17.2
  #     hydro 1 s 0.75
  #  "Third tier" (improvements: -1.03 meV ... -0.06 meV)
  #     hydro 4 d 7.8
  #     hydro 2 p 5.8
  #     hydro 4 f 8
  #     hydro 5 g 11.6
  #     hydro 4 s 4.3
  #     hydro 6 h 14.4
  #  "Fourth tier" (minor improvements)
  #     hydro 5 f 16
  #     hydro 5 d 8
  #     hydro 4 p 10
  #     hydro 5 s 7.4
  
  ################################################################################
  #
  #  FHI-aims code project
  #  VB, Fritz-Haber Institut, 2009
  #
  #  Suggested "light" defaults for O atom (to be pasted into control.in file)
  #  Be sure to double-check any results obtained with these settings for post-processing,
  #  e.g., with the "tight" defaults and larger basis sets.
  #
  ################################################################################
    species        O
  #     global species definitions
      nucleus             8
      mass                15.9994
  #
      l_hartree           4
  #
      cut_pot             3.5  1.5  1.0
      basis_dep_cutoff    1e-4
  #
      radial_base         36 5.0
      radial_multiplier   1
       angular_grids specified
        division   0.2659   50
        division   0.4451  110
        division   0.6052  194
        division   0.7543  302
  #      division   0.8014  434
  #      division   0.8507  590
  #      division   0.8762  770
  #      division   0.9023  974
  #      division   1.2339 1202
  #      outer_grid 974
        outer_grid 302
  ################################################################################
  #
  #  Definition of "minimal" basis
  #
  ################################################################################
  #     valence basis states
      valence      2  s   2.
      valence      2  p   4.
  #     ion occupancy
      ion_occ      2  s   1.
      ion_occ      2  p   3.
  ################################################################################
  #
  #  Suggested additional basis functions. For production calculations,
  #  uncomment them one after another (the most important basis functions are
  #  listed first).
  #
  #  Constructed for dimers: 1.0 A, 1.208 A, 1.5 A, 2.0 A, 3.0 A
  #
  ################################################################################
  #  "First tier" - improvements: -699.05 meV to -159.38 meV
       hydro 2 p 1.8
       hydro 3 d 7.6
       hydro 3 s 6.4
  #  "Second tier" - improvements: -49.91 meV to -5.39 meV
  #     hydro 4 f 11.6
  #     hydro 3 p 6.2
  #     hydro 3 d 5.6
  #     hydro 5 g 17.6
  #     hydro 1 s 0.75
  #  "Third tier" - improvements: -2.83 meV to -0.50 meV
  #     ionic 2 p auto
  #     hydro 4 f 10.8
  #     hydro 4 d 4.7
  #     hydro 2 s 6.8
  #  "Fourth tier" - improvements: -0.40 meV to -0.12 meV
  #     hydro 3 p 5
  #     hydro 3 s 3.3
  #     hydro 5 g 15.6
  #     hydro 4 f 17.6
  #     hydro 4 d 14
  # Further basis functions - -0.08 meV and below
  #     hydro 3 s 2.1
  #     hydro 4 d 11.6
  #     hydro 3 p 16
  #     hydro 2 s 17.2
  ################################################################################
  #
  #  FHI-aims code project
  #  VB, Fritz-Haber Institut, 2009
  #
  #  Suggested "light" defaults for H atom (to be pasted into control.in file)
  #  Be sure to double-check any results obtained with these settings for post-processing,
  #  e.g., with the "tight" defaults and larger basis sets.
  #
  ################################################################################
    species        H
  #     global species definitions
      nucleus             1
      mass                1.00794
  #
      l_hartree           4
  #
      cut_pot             3.5  1.5  1.0
      basis_dep_cutoff    1e-4
  #
      radial_base         24 5.0
      radial_multiplier   1
      angular_grids       specified
        division   0.2421   50
        division   0.3822  110
        division   0.4799  194
        division   0.5341  302
  #      division   0.5626  434
  #      division   0.5922  590
  #      division   0.6542  770
  #      division   0.6868 1202
  #      outer_grid  770
        outer_grid  302
  ################################################################################
  #
  #  Definition of "minimal" basis
  #
  ################################################################################
  #     valence basis states
      valence      1  s   1.
  #     ion occupancy
      ion_occ      1  s   0.5
  ################################################################################
  #
  #  Suggested additional basis functions. For production calculations,
  #  uncomment them one after another (the most important basis functions are
  #  listed first).
  #
  #  Basis constructed for dimers: 0.5 A, 0.7 A, 1.0 A, 1.5 A, 2.5 A
  #
  ################################################################################
  #  "First tier" - improvements: -1014.90 meV to -62.69 meV
       hydro 2 s 2.1
       hydro 2 p 3.5
  #  "Second tier" - improvements: -12.89 meV to -1.83 meV
  #     hydro 1 s 0.85
  #     hydro 2 p 3.7
  #     hydro 2 s 1.2
  #     hydro 3 d 7
  #  "Third tier" - improvements: -0.25 meV to -0.12 meV
  #     hydro 4 f 11.2
  #     hydro 3 p 4.8
  #     hydro 4 d 9
  #     hydro 3 s 3.2
  
  -----------------------------------------------------------------------
  Completed first pass over input file control.in .
  -----------------------------------------------------------------------
  
  
  -----------------------------------------------------------------------
  Parsing geometry.in (first pass over file, find array dimensions only).
  The contents of geometry.in will be repeated verbatim below
  unless switched off by setting 'verbatim_writeout .false.' .
  in the first line of geometry.in .
  -----------------------------------------------------------------------
  
  # Generated from out.xyz
  atom          9.484902          7.003381          7.847326  Co
  atom          6.940649          7.054695          7.848905  Co
  atom          6.940609          7.054516          5.715466  Co
  atom          9.484862          7.003203          5.716956  Co
  atom          8.184890          5.854607          8.569174  O
  atom          8.228209          8.219087          8.574136  O
  atom          5.999386          5.796885          6.782309  O
  atom          6.052693          8.357138          6.782093  O
  atom          8.228141          8.218788          4.989991  O
  atom          8.184822          5.854308          4.995349  O
  atom         10.366701          5.705467          6.782233  O
  atom         10.588941          8.125949          6.782026  O
  atom          8.172580          9.102865          8.210764  H
  atom          8.170977          4.978093          8.182235  H
  atom          5.094809          8.337893          6.782112  H
  atom          5.043392          5.861246          6.782321  H
  atom          8.172525          9.102626          5.353218  H
  atom          8.170925          4.977858          5.382435  H
  atom         11.317370          5.838484          6.782203  H
  atom         10.382543          9.060321          6.781951  H
  
  -----------------------------------------------------------------------
  Completed first pass over input file geometry.in .
  -----------------------------------------------------------------------
  

  Basic array size parameters:
  | Number of species                 :        3
  | Number of atoms                   :       20
  | Max. basis fn. angular momentum   :        3
  | Max. atomic/ionic basis occupied n:        4
  | Max. number of basis fn. types    :        3
  | Max. radial fns per species/type  :        7
  | Max. logarithmic grid size        :     1400
  | Max. radial integration grid size :       52
  | Max. angular integration grid size:      302
  | Max. angular grid division number :        8
  | Radial grid for Hartree potential :     1400
  | Number of spin channels           :        1

  Definition of standardized fundamental physical constants in this FHI-aims run:
  | Using the set of values used in FHI-aims up to 2024, which combines values from
  | different CODATA sets - see constants.f90.
  | Use the 'codata' keyword in control.in to change this selection.

  Memory overcommitment is allowed on your operating system.

------------------------------------------------------------
          Reading file control.in.
------------------------------------------------------------
  XC: Using PBE gradient-corrected functionals.
  Scalar relativistic treatment of kinetic energy: on-site free-atom approximation to ZORA.
  Occupation type: Gaussian broadening, width =   0.100000E-02 eV.
  Reading restart information from file restart_file
  Maximum number of s.-c. iterations  :     0
 
  Reading configuration options for species Co                  .
  | Found nuclear charge :  27.0000
  | Found atomic mass :    58.9331950000000      amu
  | Found l_max for Hartree potential  :   4
  | Found cutoff potl. onset [A], width [A], scale factor :    3.50000    1.50000    1.00000
  | Threshold for basis-dependent cutoff potential is   0.100000E-03
  | Found data for basic radial integration grid :    52 points, outermost radius =    5.000 A
  | Found multiplier for basic radial grid :   1
  | Found angular grid specification: user-specified.
  | Specified grid contains     5 separate shells.
  | Check grid settings after all constraints further below.
  | Found free-atom valence shell :  4 s   2.000
  | Found free-atom valence shell :  3 p   6.000
  | Found free-atom valence shell :  3 d   7.000
  | Found free-ion valence shell :  4 s   1.000
  | Found free-ion valence shell :  3 p   6.000
  | Found free-ion valence shell :  3 d   6.000
  | Found hydrogenic basis function :  3 p   5.800
  | Found hydrogenic basis function :  4 f   8.200
  | Found hydrogenic basis function :  3 d   5.400
  | Found ionic basis function :  4 s , default cutoff radius.
  | Found ionic basis function :  4 p , default cutoff radius.
 | Encountered keyword species, ending the description of species Co                  .
  Species Co                  : Missing cutoff potential type.
  Defaulting to exp(1/x)/(1-x)^2 type cutoff potential.
  Species Co: No 'logarithmic' tag. Using default grid for free atom:
  | Default logarithmic grid data [bohr] : 0.1000E-03 0.1000E+03 0.1012E+01
  | Will include ionic basis functions of  2.0-fold positive Co                   ion.
  Species Co: On-site basis accuracy parameter (for Gram-Schmidt orthonormalisation) not specified.
  Using default value basis_acc =  0.1000000E-03.
  Species Co                  : Using default innermost maximum threshold i_radial=  2 for radial functions.
  Species Co                  : Default cutoff onset for free atom density etc. : 0.35000000E+01 AA.
  Species Co                  : Basic radial grid will be enhanced according to radial_multiplier =   1, to contain    52 grid points.
 
  Reading configuration options for species O                   .
  | Found nuclear charge :   8.0000
  | Found atomic mass :    15.9994000000000      amu
  | Found l_max for Hartree potential  :   4
  | Found cutoff potl. onset [A], width [A], scale factor :    3.50000    1.50000    1.00000
  | Threshold for basis-dependent cutoff potential is   0.100000E-03
  | Found data for basic radial integration grid :    36 points, outermost radius =    5.000 A
  | Found multiplier for basic radial grid :   1
  | Found angular grid specification: user-specified.
  | Specified grid contains     5 separate shells.
  | Check grid settings after all constraints further below.
  | Found free-atom valence shell :  2 s   2.000
  | Found free-atom valence shell :  2 p   4.000
  | Found free-ion valence shell :  2 s   1.000
  | Found free-ion valence shell :  2 p   3.000
  | Found hydrogenic basis function :  2 p   1.800
  | Found hydrogenic basis function :  3 d   7.600
  | Found hydrogenic basis function :  3 s   6.400
 | Encountered keyword species, ending the description of species O                   .
  Species O                   : Missing cutoff potential type.
  Defaulting to exp(1/x)/(1-x)^2 type cutoff potential.
  Species O : No 'logarithmic' tag. Using default grid for free atom:
  | Default logarithmic grid data [bohr] : 0.1000E-03 0.1000E+03 0.1012E+01
  Species O : On-site basis accuracy parameter (for Gram-Schmidt orthonormalisation) not specified.
  Using default value basis_acc =  0.1000000E-03.
  Species O                   : Using default innermost maximum threshold i_radial=  2 for radial functions.
  Species O                   : Default cutoff onset for free atom density etc. : 0.35000000E+01 AA.
  Species O                   : Basic radial grid will be enhanced according to radial_multiplier =   1, to contain    36 grid points.
 
  Reading configuration options for species H                   .
  | Found nuclear charge :   1.0000
  | Found atomic mass :    1.00794000000000      amu
  | Found l_max for Hartree potential  :   4
  | Found cutoff potl. onset [A], width [A], scale factor :    3.50000    1.50000    1.00000
  | Threshold for basis-dependent cutoff potential is   0.100000E-03
  | Found data for basic radial integration grid :    24 points, outermost radius =    5.000 A
  | Found multiplier for basic radial grid :   1
  | Found angular grid specification: user-specified.
  | Specified grid contains     5 separate shells.
  | Check grid settings after all constraints further below.
  | Found free-atom valence shell :  1 s   1.000
  | Found free-ion valence shell :  1 s   0.500
  | Found hydrogenic basis function :  2 s   2.100
  | Found hydrogenic basis function :  2 p   3.500
  Species H                   : Missing cutoff potential type.
  Defaulting to exp(1/x)/(1-x)^2 type cutoff potential.
  Species H : No 'logarithmic' tag. Using default grid for free atom:
  | Default logarithmic grid data [bohr] : 0.1000E-03 0.1000E+03 0.1012E+01
  Species H : On-site basis accuracy parameter (for Gram-Schmidt orthonormalisation) not specified.
  Using default value basis_acc =  0.1000000E-03.
  Species H                   : Using default innermost maximum threshold i_radial=  2 for radial functions.
  Species H                   : Default cutoff onset for free atom density etc. : 0.35000000E+01 AA.
  Species H                   : Basic radial grid will be enhanced according to radial_multiplier =   1, to contain    24 grid points.
 
  Finished reading input file 'control.in'.
 
------------------------------------------------------------


------------------------------------------------------------
          Reading geometry description geometry.in.
------------------------------------------------------------
  | The smallest distance between any two atoms is         0.95689664 AA.
  | The first atom of this pair is atom number                     12 .
  | The second atom of this pair is atom number                    20 .
  Input structure read successfully.
  The structure contains       20 atoms,  and a total of        180.000 electrons.

  Input geometry:
  | No unit cell requested.
  | Atomic structure:
  |       Atom                x [A]            y [A]            z [A]
  |    1: Species Co            9.48490200        7.00338100        7.84732600
  |    2: Species Co            6.94064900        7.05469500        7.84890500
  |    3: Species Co            6.94060900        7.05451600        5.71546600
  |    4: Species Co            9.48486200        7.00320300        5.71695600
  |    5: Species O             8.18489000        5.85460700        8.56917400
  |    6: Species O             8.22820900        8.21908700        8.57413600
  |    7: Species O             5.99938600        5.79688500        6.78230900
  |    8: Species O             6.05269300        8.35713800        6.78209300
  |    9: Species O             8.22814100        8.21878800        4.98999100
  |   10: Species O             8.18482200        5.85430800        4.99534900
  |   11: Species O            10.36670100        5.70546700        6.78223300
  |   12: Species O            10.58894100        8.12594900        6.78202600
  |   13: Species H             8.17258000        9.10286500        8.21076400
  |   14: Species H             8.17097700        4.97809300        8.18223500
  |   15: Species H             5.09480900        8.33789300        6.78211200
  |   16: Species H             5.04339200        5.86124600        6.78232100
  |   17: Species H             8.17252500        9.10262600        5.35321800
  |   18: Species H             8.17092500        4.97785800        5.38243500
  |   19: Species H            11.31737000        5.83848400        6.78220300
  |   20: Species H            10.38254300        9.06032100        6.78195100

  Slab Identifier: This is not a periodic structure.
 
  Finished reading input file 'geometry.in'.
 

 
  Consistency checks for stacksize environment parameter are next.
 
  | Maximum stacksize for task 0: unlimited
  | Maximum stacksize for task 1: unlimited
  | Maximum stacksize for task 2: unlimited
  | Maximum stacksize for task 3: unlimited
  | Maximum stacksize for task 4: unlimited
  | Maximum stacksize for task 5: unlimited
  | Maximum stacksize for task 6: unlimited
  | Maximum stacksize for task 7: unlimited
  | Maximum stacksize for task 8: unlimited
  | Maximum stacksize for task 9: unlimited
  | Current stacksize for task 0: unlimited
  | Current stacksize for task 1: unlimited
  | Current stacksize for task 2: unlimited
  | Current stacksize for task 3: unlimited
  | Current stacksize for task 4: unlimited
  | Current stacksize for task 5: unlimited
  | Current stacksize for task 6: unlimited
  | Current stacksize for task 7: unlimited
  | Current stacksize for task 8: unlimited
  | Current stacksize for task 9: unlimited
 
  Consistency checks for the contents of control.in are next.
 
  MPI_IN_PLACE appears to work with this MPI implementation.
  | Keeping use_mpi_in_place .true. (see manual).
  Target number of points in a grid batch is not set. Defaulting to  100
  Method for grid partitioning is not set. Defaulting to parallel hash+maxmin partitioning.
  Batch size limit is not set. Defaulting to    200
  By default, will store active basis functions for each batch.
  If in need of memory, prune_basis_once .false. can be used to disable this option.
  communication_type for Hartree potential was not specified.
  Defaulting to calc_hartree .
  Defaulting to Pulay charge density mixer.
  Pulay mixer: Number of relevant iterations not set.
  Defaulting to    8 iterations.
  Pulay mixer: Number of initial linear mixing iterations not set.
  Defaulting to    0 iterations.
  Work space size for distributed Hartree potential not set.
  Defaulting to   0.200000E+03 MB.
  Mixing parameter for charge density mixing has not been set.
  Using default: charge_mix_param =     0.0500.
  The mixing parameter will be adjusted in iteration number     2 of each s.c.f. cycle (i.e., each geometry step).
  Algorithm-dependent basis array size parameters:
  | n_max_pulay                         :        8
  Presetting      1001 iterations before the initial mixing cycle
  is restarted anyway using the sc_init_iter criterion / keyword.
  Presetting a factor      1.000 between actual scf density residual
  and density convergence criterion sc_accuracy_rho below which sc_init_iter
  takes no effect.
 * No s.c.f. convergence criteria (sc_accuracy_*) were provided in control.in.
 * The run will proceed with a reasonable default guess, but please check whether.
 * the s.c.f. cycles seem to take too much or too little time.
  Calculation of forces was not defined in control.in. No forces will be calculated.
  Geometry relaxation not requested: no relaxation will be performed.
 * Notice: The s.c.f. convergence criterion sc_accuracy_rho was not provided.
 * We used to stop in this case, and ask the user to provide reasonable
 * scf convergence criteria. However, this led some users to employ criteria
 * that led to extremely long run times, e.g., for simple relaxation.
 * We now preset a default value for sc_accuracy_rho if it is not set.
 * You may still wish to check if this setting is too tight or too loose for your needs.
 * Based on n_atoms and forces and force-correction status, FHI-aims chose sc_accuracy_rho =  0.146059E-04 .
  No accuracy limit for integral partition fn. given. Defaulting to  0.1000E-14.
  No threshold value for u(r) in integrations given. Defaulting to  0.1000E-05.
  No accuracy for occupation numbers given. Defaulting to  0.1000E-12.
  No threshold value for occupation numbers given. Defaulting to  0.0000E+00.
  No accuracy for fermi level given. Defaulting to  0.1000E-19.
  Maximum # of iterations to find E_F not set. Defaulting to  200.
  Preferred method for the eigenvalue solver ('KS_method') not specified in 'control.in'.
  Calling BLACS routine to test compilation state
  Since ScaLAPACK support is enabled, defaulting to ELPA (via ELSI).
  Will not use alltoall communication since running on < 1024 CPUs.
  Threshold for basis singularities not set.
  Default threshold for basis singularities:  0.1000E-04
  partition_type (choice of integration weights) for integrals was not specified.
  | Using a version of the partition function of Stratmann and coworkers ('stratmann_sparse').
  | At each grid point, the set of atoms used to build the partition table is smoothly restricted to
  | only those atoms whose free-atom density would be non-zero at that grid point.
  Partitioning for Hartree potential was not defined. Using partition_type for integrals.
  | Adjusted default value of keyword multip_moments_threshold to:       0.10000000E-11
  | This value may affect high angular momentum components of the Hartree potential in periodic systems.
  Spin handling was not defined in control.in. Defaulting to unpolarized case.
  No q(lm)/r^(l+1) cutoff set for long-range Hartree potential.
  | Using default value of  0.100000E-09 .
  | Verify using the multipole_threshold keyword.
  Defaulting to new monopole extrapolation.
  Density update method: automatic selection selected.
  Charge integration errors on the 3D integration grid will be compensated
  by explicit normalization and distribution of residual charges.
  Use the "compensate_multipole_errors" flag to change this behaviour.
  Set 'collect_eigenvectors' to be '.true.' for use_density_matrix .false.
  Found potential conflicts with setting 'use_local_index' for this calculation. Will not set it.
 
  Consistency checks for the contents of geometry.in are next.
 
  Number of empty states per atom not set in control.in - providing a guess from actual geometry.
  | Total number of empty states used during s.c.f. cycle:       58
  If you use a very high smearing, use empty_states (per atom!) in control.in to increase this value.

  Structure-dependent array size parameters: 
  | Maximum number of distinct radial functions  :       21
  | Maximum number of basis functions            :      288
  | Number of Kohn-Sham states (occupied + empty):      148
------------------------------------------------------------
  After read_input_data [GB]:   1033.48

  Performing system and environment tests:
  *** Environment variable OMP_NUM_THREADS is not set
  *** For performance reasons you might want to set it to 1
  | Checking for ScaLAPACK...
  | Testing pdtran()...
  | All pdtran() tests passed.
  After prepare_system [GB]:   1033.46

------------------------------------------------------------
          Preparing all fixed parts of the calculation.
------------------------------------------------------------
  Determining machine precision:
    2.225073858507201E-308
  Setting up grids for atomic and cluster calculations.

  Creating wave function, potential, and density for free atoms.
  Runtime choices for atomic solver:
  | atomic solver xc        : PBE
  | compute density gradient: 1
  | compute kinetic density : F

  Species: Co

  List of occupied orbitals and eigenvalues:
    n    l              occ      energy [Ha]    energy [eV]
    1    0           2.0000      -281.560493     -7661.6508
    2    0           2.0000       -33.073487      -899.9754
    3    0           2.0000        -3.755733      -102.1987
    4    0           2.0000        -0.194189        -5.2841
    2    1           6.0000       -28.320047      -770.6277
    3    1           6.0000        -2.404060       -65.4178
    3    2           7.0000        -0.294172        -8.0048


  Species: O

  List of occupied orbitals and eigenvalues:
    n    l              occ      energy [Ha]    energy [eV]
    1    0           2.0000       -18.926989      -515.0296
    2    0           2.0000        -0.880247       -23.9527
    2    1           4.0000        -0.331514        -9.0210


  Species: H

  List of occupied orbitals and eigenvalues:
    n    l              occ      energy [Ha]    energy [eV]
    1    0           1.0000        -0.237593        -6.4652


  Adding cutoff potential to free-atom effective potential.
  Creating fixed part of basis set: Ionic, confined, hydrogenic.
 
  Co                   ion:

  List of free ionic orbitals and eigenvalues:
    n    l      energy [Ha]    energy [eV]
    1    0      -282.564401     -7688.9686
    2    0       -34.086672      -927.5455
    3    0        -4.733406      -128.8025
    4    0        -0.850278       -23.1373
    2    1       -29.331608      -798.1537
    3    1        -3.374486       -91.8244
    3    2        -1.228934       -33.4410


  List of ionic basis orbitals and eigenvalues:
    n    l      energy [Ha]    energy [eV]    outer radius [A]
    4    0        -0.850229       -23.1359       4.550088
    4    1        -0.602187       -16.3863       4.550088

 
  Co                   hydrogenic:
 
  List of hydrogenic basis orbitals: 
    n    l      effective z      eigenvalue [eV]  inner max. [A]     outer max. [A]     outer radius [A]   
    3    1         5.800000       -50.8545           0.273460           1.088525           4.176910
    4    3         8.200000       -57.1774           1.036577           1.036577           4.228286
    3    2         5.400000       -44.0819           0.884263           0.884263           4.176910
 
 
  O                    hydrogenic:
 
  List of hydrogenic basis orbitals: 
    n    l      effective z      eigenvalue [eV]  inner max. [A]     outer max. [A]     outer radius [A]   
    2    1         1.800000       -10.9749           1.164242           1.164242           4.578029
    3    2         7.600000       -87.3180           0.624125           0.624125           3.251020
    3    0         6.400000       -61.9207           0.061167           1.081902           4.001998
 
 
  H                    hydrogenic:
 
  List of hydrogenic basis orbitals: 
    n    l      effective z      eigenvalue [eV]  inner max. [A]     outer max. [A]     outer radius [A]   
    2    0         2.100000       -14.9728           0.193243           1.317208           4.583499
    2    1         3.500000       -41.6669           0.602369           0.602369           3.723403
 
  Creating atomic-like basis functions for current effective potential.

  Species Co                  :

  List of atomic basis orbitals and eigenvalues:
    n    l      energy [Ha]    energy [eV]    outer radius [A]
    1    0      -281.560493     -7661.6508       0.394613
    2    0       -33.073487      -899.9754       1.157136
    3    0        -3.755733      -102.1987       3.311155
    4    0        -0.194189        -5.2841       4.606054
    2    1       -28.320047      -770.6277       1.215127
    3    1        -2.404060       -65.4178       3.881500
    3    2        -0.294172        -8.0048       4.494802


  Species O                   :

  List of atomic basis orbitals and eigenvalues:
    n    l      energy [Ha]    energy [eV]    outer radius [A]
    1    0       -18.926989      -515.0296       1.415765
    2    0        -0.880247       -23.9527       4.413171
    2    1        -0.331514        -9.0210       4.522403


  Species H                   :

  List of atomic basis orbitals and eigenvalues:
    n    l      energy [Ha]    energy [eV]    outer radius [A]
    1    0        -0.237593        -6.4652       4.527807

  Assembling full basis from fixed parts.
  | Species Co :   atomic orbital   1 s accepted.
  | Species Co :   atomic orbital   2 s accepted.
  | Species Co :   atomic orbital   3 s accepted.
  | Species Co :    ionic orbital   4 s accepted.
  | Species Co :   atomic orbital   4 s accepted.
  | Species Co :   atomic orbital   2 p accepted.
  | Species Co :   atomic orbital   3 p accepted.
  | Species Co :    hydro orbital   3 p accepted.
  | Species Co :    ionic orbital   4 p accepted.
  | Species Co :    hydro orbital   3 d accepted.
  | Species Co :   atomic orbital   3 d accepted.
  | Species Co :    hydro orbital   4 f accepted.
  | Species O :   atomic orbital   1 s accepted.
  | Species O :    hydro orbital   3 s accepted.
  | Species O :   atomic orbital   2 s accepted.
  | Species O :   atomic orbital   2 p accepted.
  | Species O :    hydro orbital   2 p accepted.
  | Species O :    hydro orbital   3 d accepted.
  | Species H :   atomic orbital   1 s accepted.
  | Species H :    hydro orbital   2 s accepted.
  | Species H :    hydro orbital   2 p accepted.
 
  Basis size parameters after reduction:
  | Total number of radial functions:       21
  | Total number of basis functions :      288
 
  Per-task memory consumption for arrays in subroutine allocate_ext:
  |           7.535464MB.
  Testing on-site integration grid accuracy.
  |  Species  Function  <phi|h_atom|phi> (log., in eV)  <phi|h_atom|phi> (rad., in eV)
           1        1              -7661.6508455699              -7661.6445881625
           1        2               -899.9753704152               -899.9753006244
           1        3               -102.1986874621               -102.1986858951
           1        4                 -4.3995201646                 -4.4000476581
           1        5                  6.4998987401                  6.3862237834 ***
           1        6               -770.6276984242               -770.6276975510
           1        7                -65.4177997425                -65.4177995139
           1        8                  4.2836106756                  4.2837650023
           1        9                 12.4085780998                 12.3344031654 ***
           1       10                  6.1669384236                  6.1670843253
           1       11                 13.0910080395                 13.0902338507
           1       12                 32.6191689967                 32.6193328353
           2       13               -515.0295626295               -515.0294562738
           2       14                 15.1698434419                 15.1699322204
           2       15                -21.6038822678                -21.6039118105
           2       16                 -9.0211123393                 -9.0212703513
           2       17                  8.3047696391                  8.2854840999
           2       18                 45.8428042125                 45.8427461222
           3       19                 -6.4664147733                 -6.4652229287
           3       20                 13.7099062243                 13.7158503352
           3       21                 25.2661739479                 25.2663166526
 * Note: Onsite integrals marked "***" above are less accurate than
 * onsite_accuracy_threshold =    0.03000 eV. Usually, this is harmless.
 * When in doubt, tighten the "radial" and/or "radial_multiplier" flags to check.

  Preparing densities etc. for the partition functions (integrals / Hartree potential).

  Preparations completed.
  max(cpu_time)          :      0.204 s.
  Wall clock time (cpu1) :      0.201 s.
------------------------------------------------------------
  After prepare_scf [GB]:   1032.95

  Initializing index lists of integration centers etc. from given atomic structure:
  | Number of centers in hartree potential         :        20
  | Number of centers in hartree multipole         :        20
  | Number of centers in electron density summation:        20
  | Number of centers in basis integrals           :        20
  | Number of centers in integrals                 :        20
  | Number of centers in hamiltonian               :        20
  After initialize_bc_dependent_lists [GB]:   1032.95

------------------------------------------------------------
          Begin self-consistency loop: Initialization.

          Date     :  20260311, Time     :  105447.721
------------------------------------------------------------
  Available memory per node after initialize_hartree_non_periodic_ewald [GB]:   1032.95
  Available memory per node after initialize_recip_hartree_potential [GB]:   1032.95
  * Using 10 tasks for Scalapack Eigenvalue solver.
  Detailed listing of tasks and assigned k-points:
  (for non-periodic systems, the "k-point" denotes an internal label only)
   Task     0 k-point     1 on epyc-cest1
   Task     1 k-point     1 on epyc-cest1
   Task     2 k-point     1 on epyc-cest1
   Task     3 k-point     1 on epyc-cest1
   Task     4 k-point     1 on epyc-cest1
   Task     5 k-point     1 on epyc-cest1
   Task     6 k-point     1 on epyc-cest1
   Task     7 k-point     1 on epyc-cest1
   Task     8 k-point     1 on epyc-cest1
   Task     9 k-point     1 on epyc-cest1
  Tasks:    10 split into      5 X      2 BLACS grid
  Calculating block size based on n_basis =          288  max_nprow =            5  max_npcol =            2
  ScaLAPACK block size set to:           16
  Allocating        0.070 MB for ovlp
  Allocating        0.070 MB for ham
  Allocating        0.070 MB for eigenvec
  Required Scalapack workspace - INTEGER:            1  REAL:             1
  Available memory per node after initialize_scalapack [GB]:   1032.95
  Available memory per node after aims_elsi_init_scf [GB]:   1032.95
  Available memory per node after initialize_fixed_grids [GB]:   1032.95
  Partitioning the integration grid into batches with parallel hashing+maxmin method.
  | Number of batches:     1417
  | Maximal batch size:     199
  | Minimal batch size:      63
  | Average batch size:      82.947
  | Standard deviation of batch sizes:      25.383

  Integration load balanced across    10 MPI tasks.
  Work distribution over tasks is as follows:
  Task     0 has      11756 integration points.
  Task     1 has      11720 integration points.
  Task     2 has      11770 integration points.
  Task     3 has      11795 integration points.
  Task     4 has      11785 integration points.
  Task     5 has      11668 integration points.
  Task     6 has      11789 integration points.
  Task     7 has      11747 integration points.
  Task     8 has      11790 integration points.
  Task     9 has      11716 integration points.
  Available memory per node after partition_grid [GB]:   1032.95
  Initializing partition tables, free-atom densities, potentials, etc. across the integration grid (initialize_grid_storage).
  | initialize_grid_storage: Actual outermost partition radius vs. multipole_radius_free
  | (-- VB: in principle, multipole_radius_free should be larger, hence this output)
  | Species        1: Confinement radius =              4.999999999999999 AA, multipole_radius_free =              5.017573460429229 AA.
  | Species        1: outer_partition_radius set to              5.017573460429229 AA .
  | Species        2: Confinement radius =              4.999999999999999 AA, multipole_radius_free =              5.048384829883283 AA.
  | Species        2: outer_partition_radius set to              5.048384829883283 AA .
  | Species        3: Confinement radius =              4.999999999999999 AA, multipole_radius_free =              5.054417573612229 AA.
  | Species        3: outer_partition_radius set to              5.054417573612229 AA .
  | The sparse table of interatomic distances needs          4.64 kbyte instead of         3.20 kbyte of memory.
  | Using the partition_type stratmann_smoother will reduce your memory usage.
  | Net number of integration points:   117536
  | of which are non-zero points    :   101292
  Available memory per node after initialize_grid_storage_p1 [GB]:   1032.95
  Renormalizing the initial density to the exact electron count on the 3D integration grid.
  | Initial density: Formal number of electrons (from input files) :     180.0000000000
  | Integrated number of electrons on 3D grid     :     179.9991794597
  | Charge integration error                      :      -0.0008205403
  | Normalization factor for density and gradient :       1.0000045586
  Renormalizing the free-atom superposition density to the exact electron count on the 3D integration grid.
  | Formal number of electrons (from input files) :     180.0000000000
  | Integrated number of electrons on 3D grid     :     179.9991794597
  | Charge integration error                      :      -0.0008205403
  | Normalization factor for density and gradient :       1.0000045586
  Obtaining max. number of non-zero basis functions in each batch (get_n_compute_maxes).
  | Maximal number of non-zero basis functions:      270 in task     0
  | Maximal number of non-zero basis functions:      271 in task     1
  | Maximal number of non-zero basis functions:      269 in task     2
  | Maximal number of non-zero basis functions:      270 in task     3
  | Maximal number of non-zero basis functions:      270 in task     4
  | Maximal number of non-zero basis functions:      271 in task     5
  | Maximal number of non-zero basis functions:      270 in task     6
  | Maximal number of non-zero basis functions:      272 in task     7
  | Maximal number of non-zero basis functions:      270 in task     8
  | Maximal number of non-zero basis functions:      270 in task     9
  Selecting the method for density update.
  Loop over occupied states selected for charge density update.
  Available memory per node after get_n_compute_maxes_p1 [GB]:   1032.95
  Allocating        0.325 MB for KS_eigenvector
  Available memory per node after allocate_matrices [GB]:   1032.95
  Available memory per node after init_comm_sparse_local_matrix_scalapack [GB]:   1032.95
  Integrating Hamiltonian matrix: batch-based integration.
  Time summed over all CPUs for integration: real work        1.061 s, elapsed        1.088 s
  Available memory per node after integrate hamiltonian matrix [GB]:   1032.95
  Integrating overlap matrix.
  Time summed over all CPUs for integration: real work        0.579 s, elapsed        0.596 s
  Available memory per node after integrate ovlp matrix [GB]:   1032.95
  Available memory per node after ASI_callbacks invoke [GB]:   1032.95
  Deallocating overlap matrix.
  Available memory per node after save_overlap_scalapack [GB]:   1032.95

  Reading cluster restart information from file restart_file
  Available memory per node after advance_KS_solution [GB]:   1032.95
  Writing Kohn-Sham eigenvalues.

  State    Occupation    Eigenvalue [Ha]    Eigenvalue [eV]
      1       2.00000        -281.438845        -7658.34062
      2       2.00000        -281.438845        -7658.34062
      3       2.00000        -281.437254        -7658.29733
      4       2.00000        -281.437254        -7658.29733
      5       2.00000         -32.946959         -896.53238
      6       2.00000         -32.946959         -896.53238
      7       2.00000         -32.945152         -896.48319
      8       2.00000         -32.945152         -896.48319
      9       2.00000         -28.202805         -767.43738
     10       2.00000         -28.202805         -767.43738
     11       2.00000         -28.201215         -767.39411
     12       2.00000         -28.201215         -767.39410
     13       2.00000         -28.194938         -767.22329
     14       2.00000         -28.194938         -767.22329
     15       2.00000         -28.192923         -767.16847
     16       2.00000         -28.192923         -767.16847
     17       2.00000         -28.185114         -766.95598
     18       2.00000         -28.185114         -766.95598
     19       2.00000         -28.183352         -766.90803
     20       2.00000         -28.183352         -766.90803
     21       2.00000         -18.790032         -511.30280
     22       2.00000         -18.790032         -511.30280
     23       2.00000         -18.789755         -511.29524
     24       2.00000         -18.789256         -511.28166
     25       2.00000         -18.788581         -511.26329
     26       2.00000         -18.787110         -511.22328
     27       2.00000         -18.787110         -511.22328
     28       2.00000         -18.783586         -511.12738
     29       2.00000          -3.629311          -98.75858
     30       2.00000          -3.627766          -98.71654
     31       2.00000          -3.627057          -98.69724
     32       2.00000          -3.625480          -98.65434
     33       2.00000          -2.304145          -62.69898
     34       2.00000          -2.302749          -62.66098
     35       2.00000          -2.293488          -62.40898
     36       2.00000          -2.291796          -62.36295
     37       2.00000          -2.280101          -62.04471
     38       2.00000          -2.278303          -61.99579
     39       2.00000          -2.277957          -61.98635
     40       2.00000          -2.276147          -61.93711
     41       2.00000          -2.265360          -61.64359
     42       2.00000          -2.262745          -61.57241
     43       2.00000          -2.259573          -61.48612
     44       2.00000          -2.257301          -61.42428
     45       2.00000          -0.921199          -25.06710
     46       2.00000          -0.910561          -24.77764
     47       2.00000          -0.909325          -24.74400
     48       2.00000          -0.900492          -24.50364
     49       2.00000          -0.897594          -24.42478
     50       2.00000          -0.895071          -24.35611
     51       2.00000          -0.892398          -24.28337
     52       2.00000          -0.889702          -24.21004
     53       2.00000          -0.491546          -13.37566
     54       2.00000          -0.483629          -13.16022
     55       2.00000          -0.462927          -12.59689
     56       2.00000          -0.454923          -12.37908
     57       2.00000          -0.452709          -12.31885
     58       2.00000          -0.445155          -12.11328
     59       2.00000          -0.412180          -11.21599
     60       2.00000          -0.405103          -11.02340
     61       2.00000          -0.361477           -9.83629
     62       2.00000          -0.348538           -9.48421
     63       2.00000          -0.345091           -9.39040
     64       2.00000          -0.337076           -9.17232
     65       2.00000          -0.336209           -9.14871
     66       2.00000          -0.334278           -9.09616
     67       2.00000          -0.331155           -9.01118
     68       2.00000          -0.317178           -8.63086
     69       2.00000          -0.313466           -8.52986
     70       2.00000          -0.311538           -8.47737
     71       2.00000          -0.305673           -8.31779
     72       2.00000          -0.298278           -8.11655
     73       2.00000          -0.288853           -7.86010
     74       2.00000          -0.288338           -7.84608
     75       2.00000          -0.287412           -7.82088
     76       2.00000          -0.265413           -7.22225
     77       2.00000          -0.244027           -6.64032
     78       2.00000          -0.225023           -6.12320
     79       2.00000          -0.190409           -5.18129
     80       2.00000          -0.183160           -4.98404
     81       2.00000          -0.178556           -4.85875
     82       2.00000          -0.178216           -4.84950
     83       2.00000          -0.173945           -4.73330
     84       2.00000          -0.169500           -4.61232
     85       2.00000          -0.167459           -4.55679
     86       2.00000          -0.160183           -4.35879
     87       2.00000          -0.153103           -4.16614
     88       2.00000          -0.148971           -4.05370
     89       2.00000          -0.141678           -3.85526
     90       2.00000          -0.139131           -3.78594
     91       0.00000          -0.136764           -3.72153
     92       0.00000          -0.123698           -3.36600
     93       0.00000          -0.088765           -2.41543
     94       0.00000          -0.087569           -2.38288
     95       0.00000          -0.086468           -2.35290
     96       0.00000          -0.081171           -2.20878
     97       0.00000          -0.033751           -0.91841
     98       0.00000          -0.000162           -0.00440
     99       0.00000           0.016298            0.44348
    100       0.00000           0.039224            1.06733
    101       0.00000           0.039997            1.08837
    102       0.00000           0.055773            1.51767
    103       0.00000           0.077381            2.10564
    104       0.00000           0.078952            2.14839
    105       0.00000           0.084874            2.30953
    106       0.00000           0.101959            2.77443
    107       0.00000           0.103841            2.82565
    108       0.00000           0.108826            2.96130
    109       0.00000           0.112734            3.06765
    110       0.00000           0.214209            5.82893
    111       0.00000           0.239503            6.51722
    112       0.00000           0.278608            7.58130
    113       0.00000           0.279418            7.60336
    114       0.00000           0.281247            7.65312
    115       0.00000           0.297323            8.09057
    116       0.00000           0.300420            8.17484
    117       0.00000           0.321023            8.73547
    118       0.00000           0.334414            9.09986
    119       0.00000           0.339374            9.23483
    120       0.00000           0.358041            9.74279
    121       0.00000           0.364218            9.91088
    122       0.00000           0.382342           10.40407
    123       0.00000           0.382343           10.40409
    124       0.00000           0.398537           10.84475
    125       0.00000           0.412757           11.23168
    126       0.00000           0.423275           11.51790
    127       0.00000           0.434117           11.81292
    128       0.00000           0.448957           12.21675
    129       0.00000           0.451831           12.29495
    130       0.00000           0.470092           12.79185
    131       0.00000           0.508510           13.83726
    132       0.00000           0.513283           13.96714
    133       0.00000           0.531539           14.46391
    134       0.00000           0.543691           14.79458
    135       0.00000           0.560852           15.26155
    136       0.00000           0.565649           15.39208
    137       0.00000           0.579178           15.76024
    138       0.00000           0.603784           16.42981
    139       0.00000           0.607667           16.53547
    140       0.00000           0.614706           16.72699
    141       0.00000           0.639693           17.40692
    142       0.00000           0.657617           17.89468
    143       0.00000           0.672051           18.28743
    144       0.00000           0.677251           18.42894
    145       0.00000           0.683531           18.59981
    146       0.00000           0.696461           18.95167
    147       0.00000           0.713017           19.40217
    148       0.00000           0.739317           20.11783

  Highest occupied state (VBM) at     -3.78593606 eV
  | Occupation number:      2.00000000

  Lowest unoccupied state (CBM) at    -3.72152562 eV
  | Occupation number:      0.00000000

  Overall HOMO-LUMO gap:      0.06441044 eV.
  Calculating total energy contributions from superposition of free atom densities.

  Total energy components:
  | Sum of eigenvalues            :       -3612.73941291 Ha      -98307.64126304 eV
  | XC energy correction          :        -308.78020026 Ha       -8402.33675536 eV
  | XC potential correction       :         400.07019514 Ha       10886.46390698 eV
  | Free-atom electrostatic energy:       -2652.69956898 Ha      -72183.62793444 eV
  | Hartree energy correction     :           0.00000000 Ha           0.00000000 eV
  | Entropy correction            :           0.00000000 Ha           0.00000000 eV
  | ---------------------------
  | Total energy                  :       -6174.14898701 Ha     -168007.14204586 eV
  | Total energy, T -> 0          :       -6174.14898701 Ha     -168007.14204586 eV  <-- do not rely on this value for anything but (periodic) metals
  | Electronic free energy        :       -6174.14898701 Ha     -168007.14204586 eV

  Derived energy quantities:
  | Kinetic energy                :        6302.74387690 Ha      171506.38703938 eV
  | Electrostatic energy          :      -12168.11266365 Ha     -331111.19232988 eV
  | Energy correction for multipole
  | error in Hartree potential    :           0.00000000 Ha           0.00000000 eV
  | Sum of eigenvalues per atom                           :       -4915.38206315 eV
  | Total energy (T->0) per atom                          :       -8400.35710229 eV  <-- do not rely on this value for anything but (periodic) metals
  | Electronic free energy per atom                       :       -8400.35710229 eV
  Initialize hartree_potential_storage
  Max. number of atoms included in rho_multipole:           20

  End scf initialization - timings             :  max(cpu_time)    wall_clock(cpu1)
  | Time for scf. initialization                :        0.312 s           0.312 s
  | Boundary condition initialization           :        0.009 s           0.008 s
  | Integration                                 :        0.170 s           0.170 s
  | Solution of K.-S. eqns.                     :        0.008 s           0.008 s
  | Grid partitioning                           :        0.053 s           0.052 s
  | Preloading free-atom quantities on grid     :        0.064 s           0.064 s
  | Free-atom superposition energy              :        0.014 s           0.015 s
  | Total energy evaluation                     :        0.000 s           0.000 s

  Partial memory accounting:
  | Current value for overall tracked memory usage:
  |   Minimum:        0.802 MB (on task  6)
  |   Maximum:        0.855 MB (on task  0)
  |   Average:        0.834 MB
  | Peak value for overall tracked memory usage:
  |   Minimum:        2.912 MB (on task  6 after allocating wave)
  |   Maximum:        2.973 MB (on task  1 after allocating wave)
  |   Average:        2.946 MB
  | Largest tracked array allocation so far:
  |   Minimum:        0.552 MB (hamiltonian_shell on task  2)
  |   Maximum:        0.784 MB (all_coords on task  5)
  |   Average:        0.601 MB
  Note:  These values currently only include a subset of arrays which are explicitly tracked.
  The "true" memory usage will be greater.
------------------------------------------------------------
  Available memory after initialize_scf [GB]:   1032.95
  Available memory after allocating mixing [GB]:   1032.95
  Evaluating new KS density.
  Integration grid: deviation in total charge (<rho> - N_e) =  -5.954746E-09

  Time for density update prior                :  max(cpu_time)    wall_clock(cpu1)
  | self-consistency iterative process          :        0.111 s           0.111 s
  Available memory before start of SCF loop [GB]:   1032.94

------------------------------------------------------------
          Initial SCF-cycle to compute last known
          density from restart information.

  Date     :  20260311, Time     :  105448.144
------------------------------------------------------------
  Available memory per node after mixing [GB]:   1032.94
  Renormalizing the density to the exact electron count on the 3D integration grid.
  | Formal number of electrons (from input files) :     180.0000000000
  | Integrated number of electrons on 3D grid     :     179.9999999940
  | Charge integration error                      :      -0.0000000060
  | Normalization factor for density and gradient :       1.0000000000

  Evaluating partitioned Hartree potential by multipole expansion.
  | Original multipole sum: apparent total charge =   0.129384E-12
  | Sum of charges compensated after spline to logarithmic grids =   0.651657E-03
  | Analytical far-field extrapolation by fixed multipoles:
  | Hartree multipole sum: apparent total charge =   0.129409E-12
  Summing up the Hartree potential.
  Time summed over all CPUs for potential: real work        0.031 s, elapsed        0.031 s
  | RMS charge density error from multipole expansion :   0.302719E-01

  Integrating Hamiltonian matrix: batch-based integration.
  Time summed over all CPUs for integration: real work        1.048 s, elapsed        1.078 s

  Updating Kohn-Sham eigenvalues and eigenvectors using ELSI and the ELPA eigensolver.
  Overlap matrix is not singular
  | Lowest and highest eigenvalues :  0.1404E-02,  0.7115E+01
  Finished singularity check of overlap matrix
  | Time :     0.008 s
  Starting ELPA eigensolver
  Finished Cholesky decomposition
  | Time :     0.003 s
  Finished transformation to standard eigenproblem
  | Time :     0.002 s
  Finished solving standard eigenproblem
  | Time :     0.009 s
  Finished back-transformation of eigenvectors
  | Time :     0.000 s

  Obtaining occupation numbers and electronic chemical potential using ELSI.
  | Note that, for insulating systems, the printed 'chemical potential' value is not uniquely defined.
  | It can be anywhere in the energy gap, as long as it correctly separates occupied and unoccupied states.
  | In systems with a gap, the physically relevant chemical potential is the VBM or HOMO.

  | Chemical potential (Fermi level):    -3.75373120 eV
  Writing Kohn-Sham eigenvalues.

  State    Occupation    Eigenvalue [Ha]    Eigenvalue [eV]
      1       2.00000        -281.438864        -7658.34113
      2       2.00000        -281.438863        -7658.34111
      3       2.00000        -281.437272        -7658.29782
      4       2.00000        -281.437272        -7658.29781
      5       2.00000         -32.946962         -896.53245
      6       2.00000         -32.946961         -896.53243
      7       2.00000         -32.945154         -896.48325
      8       2.00000         -32.945153         -896.48324
      9       2.00000         -28.202808         -767.43745
     10       2.00000         -28.202807         -767.43743
     11       2.00000         -28.201217         -767.39415
     12       2.00000         -28.201216         -767.39414
     13       2.00000         -28.194940         -767.22335
     14       2.00000         -28.194939         -767.22334
     15       2.00000         -28.192925         -767.16852
     16       2.00000         -28.192925         -767.16851
     17       2.00000         -28.185117         -766.95604
     18       2.00000         -28.185116         -766.95603
     19       2.00000         -28.183354         -766.90808
     20       2.00000         -28.183354         -766.90807
     21       2.00000         -18.790034         -511.30283
     22       2.00000         -18.790034         -511.30283
     23       2.00000         -18.789756         -511.29528
     24       2.00000         -18.789257         -511.28169
     25       2.00000         -18.788582         -511.26333
     26       2.00000         -18.787112         -511.22332
     27       2.00000         -18.787111         -511.22331
     28       2.00000         -18.783587         -511.12741
     29       2.00000          -3.629312          -98.75859
     30       2.00000          -3.627766          -98.71654
     31       2.00000          -3.627057          -98.69725
     32       2.00000          -3.625480          -98.65434
     33       2.00000          -2.304146          -62.69899
     34       2.00000          -2.302749          -62.66098
     35       2.00000          -2.293488          -62.40899
     36       2.00000          -2.291796          -62.36295
     37       2.00000          -2.280102          -62.04472
     38       2.00000          -2.278304          -61.99580
     39       2.00000          -2.277957          -61.98635
     40       2.00000          -2.276147          -61.93710
     41       2.00000          -2.265360          -61.64359
     42       2.00000          -2.262745          -61.57241
     43       2.00000          -2.259574          -61.48612
     44       2.00000          -2.257301          -61.42428
     45       2.00000          -0.921199          -25.06710
     46       2.00000          -0.910561          -24.77764
     47       2.00000          -0.909325          -24.74400
     48       2.00000          -0.900492          -24.50364
     49       2.00000          -0.897594          -24.42478
     50       2.00000          -0.895071          -24.35611
     51       2.00000          -0.892398          -24.28338
     52       2.00000          -0.889702          -24.21004
     53       2.00000          -0.491546          -13.37566
     54       2.00000          -0.483629          -13.16022
     55       2.00000          -0.462927          -12.59689
     56       2.00000          -0.454923          -12.37908
     57       2.00000          -0.452709          -12.31885
     58       2.00000          -0.445155          -12.11328
     59       2.00000          -0.412180          -11.21599
     60       2.00000          -0.405103          -11.02340
     61       2.00000          -0.361477           -9.83629
     62       2.00000          -0.348538           -9.48421
     63       2.00000          -0.345091           -9.39040
     64       2.00000          -0.337076           -9.17232
     65       2.00000          -0.336209           -9.14871
     66       2.00000          -0.334278           -9.09616
     67       2.00000          -0.331155           -9.01118
     68       2.00000          -0.317178           -8.63086
     69       2.00000          -0.313466           -8.52986
     70       2.00000          -0.311538           -8.47737
     71       2.00000          -0.305673           -8.31779
     72       2.00000          -0.298278           -8.11655
     73       2.00000          -0.288853           -7.86010
     74       2.00000          -0.288338           -7.84609
     75       2.00000          -0.287412           -7.82088
     76       2.00000          -0.265413           -7.22225
     77       2.00000          -0.244027           -6.64032
     78       2.00000          -0.225023           -6.12320
     79       2.00000          -0.190409           -5.18129
     80       2.00000          -0.183160           -4.98404
     81       2.00000          -0.178556           -4.85875
     82       2.00000          -0.178216           -4.84950
     83       2.00000          -0.173945           -4.73330
     84       2.00000          -0.169500           -4.61232
     85       2.00000          -0.167459           -4.55679
     86       2.00000          -0.160183           -4.35879
     87       2.00000          -0.153103           -4.16615
     88       2.00000          -0.148971           -4.05370
     89       2.00000          -0.141678           -3.85526
     90       2.00000          -0.139131           -3.78594
     91       0.00000          -0.136764           -3.72153
     92       0.00000          -0.123698           -3.36600
     93       0.00000          -0.088765           -2.41543
     94       0.00000          -0.087569           -2.38287
     95       0.00000          -0.086468           -2.35290
     96       0.00000          -0.081171           -2.20878
     97       0.00000          -0.033751           -0.91841
     98       0.00000          -0.000162           -0.00440
     99       0.00000           0.016298            0.44348
    100       0.00000           0.039224            1.06733
    101       0.00000           0.039997            1.08837
    102       0.00000           0.055773            1.51767
    103       0.00000           0.077381            2.10564
    104       0.00000           0.078952            2.14839
    105       0.00000           0.084874            2.30953
    106       0.00000           0.101959            2.77443
    107       0.00000           0.103841            2.82565
    108       0.00000           0.108826            2.96130
    109       0.00000           0.112734            3.06765
    110       0.00000           0.214209            5.82893
    111       0.00000           0.239503            6.51722
    112       0.00000           0.278608            7.58130
    113       0.00000           0.279418            7.60336
    114       0.00000           0.281247            7.65312
    115       0.00000           0.297323            8.09057
    116       0.00000           0.300420            8.17484
    117       0.00000           0.321023            8.73547
    118       0.00000           0.334414            9.09986
    119       0.00000           0.339374            9.23483
    120       0.00000           0.358041            9.74279
    121       0.00000           0.364218            9.91088
    122       0.00000           0.382342           10.40407
    123       0.00000           0.382343           10.40409
    124       0.00000           0.398537           10.84475
    125       0.00000           0.412757           11.23168
    126       0.00000           0.423275           11.51790
    127       0.00000           0.434117           11.81292
    128       0.00000           0.448957           12.21675
    129       0.00000           0.451831           12.29495
    130       0.00000           0.470092           12.79185
    131       0.00000           0.508510           13.83726
    132       0.00000           0.513283           13.96714
    133       0.00000           0.531539           14.46391
    134       0.00000           0.543691           14.79458
    135       0.00000           0.560852           15.26155
    136       0.00000           0.565649           15.39208
    137       0.00000           0.579178           15.76024
    138       0.00000           0.603785           16.42981
    139       0.00000           0.607667           16.53547
    140       0.00000           0.614706           16.72699
    141       0.00000           0.639693           17.40692
    142       0.00000           0.657617           17.89468
    143       0.00000           0.672051           18.28743
    144       0.00000           0.677251           18.42894
    145       0.00000           0.683531           18.59982
    146       0.00000           0.696461           18.95168
    147       0.00000           0.713017           19.40218
    148       0.00000           0.739317           20.11783

  Highest occupied state (VBM) at     -3.78593520 eV
  | Occupation number:      2.00000000

  Lowest unoccupied state (CBM) at    -3.72152720 eV
  | Occupation number:      0.00000000

  Overall HOMO-LUMO gap:      0.06440800 eV.

  Total energy components:
  | Sum of eigenvalues            :       -3612.73964473 Ha      -98307.64757123 eV
  | XC energy correction          :        -310.36846487 Ha       -8445.55563421 eV
  | XC potential correction       :         402.12500249 Ha       10942.37805983 eV
  | Free-atom electrostatic energy:       -2652.69956898 Ha      -72183.62793444 eV
  | Hartree energy correction     :         -29.91717472 Ha        -814.08774450 eV
  | Entropy correction            :           0.00000000 Ha           0.00000000 eV
  | ---------------------------
  | Total energy                  :       -6203.59985081 Ha     -168808.54082455 eV
  | Total energy, T -> 0          :       -6203.59985081 Ha     -168808.54082455 eV  <-- do not rely on this value for anything but (periodic) metals
  | Electronic free energy        :       -6203.59985081 Ha     -168808.54082455 eV

  Derived energy quantities:
  | Kinetic energy                :        6274.75367703 Ha      170744.73494842 eV
  | Electrostatic energy          :      -12167.98506297 Ha     -331107.72013876 eV
  | Energy correction for multipole
  | error in Hartree potential    :           0.04207072 Ha           1.14480267 eV
  | Sum of eigenvalues per atom                           :       -4915.38237856 eV
  | Total energy (T->0) per atom                          :       -8440.42704123 eV  <-- do not rely on this value for anything but (periodic) metals
  | Electronic free energy per atom                       :       -8440.42704123 eV
  Evaluating new KS density.
  Integration grid: deviation in total charge (<rho> - N_e) =   2.842171E-14

  Self-consistency convergence accuracy:
  | Change of charge density      :  0.1072E+01
  | Change of unmixed KS density  :  0.1416E+03
  | Change of sum of eigenvalues  : -0.6308E-02 eV
  | Change of total energy        : -0.8014E+03 eV


------------------------------------------------------------
  End self-consistency iteration #     0       :  max(cpu_time)    wall_clock(cpu1)
  | Time for this iteration                     :        0.277 s           0.277 s
  | Charge density update                       :        0.109 s           0.109 s
  | Density mixing                              :        0.000 s           0.000 s
  | Hartree multipole update                    :        0.002 s           0.002 s
  | Hartree multipole summation                 :        0.032 s           0.032 s
  | Integration                                 :        0.108 s           0.108 s
  | Solution of K.-S. eqns.                     :        0.025 s           0.025 s
  | Total energy evaluation                     :        0.000 s           0.000 s

  Partial memory accounting:
  | Current value for overall tracked memory usage:
  |   Minimum:        7.327 MB (on task  9)
  |   Maximum:        7.424 MB (on task  3)
  |   Average:        7.380 MB
  | Peak value for overall tracked memory usage:
  |   Minimum:        9.119 MB (on task  9 after allocating wave)
  |   Maximum:        9.216 MB (on task  3 after allocating wave)
  |   Average:        9.174 MB
  | Largest tracked array allocation so far:
  |   Minimum:        2.136 MB (previous_rho_gradient_diff on task  5)
  |   Maximum:        2.160 MB (previous_rho_gradient_diff on task  3)
  |   Average:        2.152 MB
  Note:  These values currently only include a subset of arrays which are explicitly tracked.
  The "true" memory usage will be greater.
------------------------------------------------------------

  Energy and forces in a compact form:
  | Total energy uncorrected      :         -0.168808540824546E+06 eV
  | Total energy corrected        :         -0.168808540824546E+06 eV  <-- do not rely on this value for anything but (periodic) metals
  | Electronic free energy        :         -0.168808540824546E+06 eV

  ------------------------------------ 
  Start decomposition of the XC Energy 
  ------------------------------------ 
  X and C from original XC functional choice 
  Hartree-Fock Energy :          0.000000000 Ha              0.000000000 eV
  X Energy            :       -302.915898025 Ha          -8242.760972328 eV
  C Energy            :         -7.452566843 Ha           -202.794661879 eV
  XC Energy w/o HF    :       -310.368464868 Ha          -8445.555634207 eV
  Total XC Energy     :       -310.368464868 Ha          -8445.555634207 eV
  ------------------------------------ 
  LDA X and C from self-consistent density 
  X Energy LDA        :       -282.969247283 Ha          -7699.984989503 eV
  C Energy LDA        :        -14.274455349 Ha           -388.427693042 eV
  ------------------------------------ 
  End decomposition of the XC Energy 
  ------------------------------------ 

------------------------------------------------------------

 ***********************************************************
 *
 * WARNING! SELF-CONSISTENCY CYCLE DID NOT CONVERGE
 * USING YOUR PRESELECTED ACCURACY CRITERIA.
 * DO NOT RELY ON ANY FINAL DATA WITHOUT FURTHER CHECKS.
 *
 ***********************************************************
 * NO POSTPROCESSING WILL BE DONE
 * IF YOU WANT POSTPROCESSING ANYWAY, SET postprocess_anyway TO .true.
 ***********************************************************

------------------------------------------------------------
          Leaving FHI-aims.
          Date     :  20260311, Time     :  105448.431

          Computational steps:
          | Number of self-consistency cycles          :            0
          | Number of SCF (re)initializations          :            1

          Detailed time accounting                     :  max(cpu_time)    wall_clock(cpu1)
          | Total time                                  :        0.965 s           0.965 s
          | Preparation time                            :        0.204 s           0.201 s
          | Boundary condition initalization            :        0.009 s           0.008 s
          | Grid partitioning                           :        0.053 s           0.052 s
          | Preloading free-atom quantities on grid     :        0.064 s           0.064 s
          | Free-atom superposition energy              :        0.014 s           0.015 s
          | Total time for integrations                 :        0.279 s           0.278 s
          | Total time for solution of K.-S. equations  :        0.033 s           0.033 s
          | Total time for density update               :        0.220 s           0.220 s
          | Total time for mixing                       :        0.000 s           0.000 s
          | Total time for Hartree multipole update     :        0.002 s           0.002 s
          | Total time for Hartree multipole sum        :        0.032 s           0.032 s
          | Total time for total energy evaluation      :        0.000 s           0.000 s
          | Total time for scaled ZORA corrections      :        0.000 s           0.000 s

          Partial memory accounting:
          | Residual value for overall tracked memory usage across tasks:     0.000000 MB (should be 0.000000 MB)
          | Peak values for overall tracked memory usage:
          |   Minimum:        9.119 MB (on task  9 after allocating wave)
          |   Maximum:        9.216 MB (on task  3 after allocating wave)
          |   Average:        9.174 MB
          | Largest tracked array allocation:
          |   Minimum:        2.136 MB (previous_rho_gradient_diff on task  5)
          |   Maximum:        2.160 MB (previous_rho_gradient_diff on task  3)
          |   Average:        2.152 MB
          Note:  These values currently only include a subset of arrays which are explicitly tracked.
          The "true" memory usage will be greater.

------------------------------------------------------------
 *** scf_solver: SCF cycle not converged.
 
 *** scf_solver: SCF cycle not converged.
 
